+ 0 3 2 cbr 210 ------- 5 3.18 13.0 0 0
- 0 3 2 cbr 210 ------- 5 3.18 13.0 0 0
+ 0 13 0 cbr 210 ------- 5 13.1 3.19 0 1
- 0 13 0 cbr 210 ------- 5 13.1 3.19 0 1
+ 0.00672 3 2 cbr 210 ------- 5 3.18 13.0 1 2
- 0.00672 3 2 cbr 210 ------- 5 3.18 13.0 1 2
+ 0.00672 13 0 cbr 210 ------- 5 13.1 3.19 1 3
- 0.00672 13 0 cbr 210 ------- 5 13.1 3.19 1 3
r 0.010168 3 2 cbr 210 ------- 5 3.18 13.0 0 0
+ 0.010168 2 1 cbr 210 ------- 5 3.18 13.0 0 0
- 0.010168 2 1 cbr 210 ------- 5 3.18 13.0 0 0
r 0.010168 13 0 cbr 210 ------- 5 13.1 3.19 0 1
+ 0.010168 0 1 cbr 210 ------- 5 13.1 3.19 0 1
- 0.010168 0 1 cbr 210 ------- 5 13.1 3.19 0 1
+ 0.01344 3 2 cbr 210 ------- 5 3.18 13.0 2 4
- 0.01344 3 2 cbr 210 ------- 5 3.18 13.0 2 4
+ 0.01344 13 0 cbr 210 ------- 5 13.1 3.19 2 5
- 0.01344 13 0 cbr 210 ------- 5 13.1 3.19 2 5
r 0.016888 3 2 cbr 210 ------- 5 3.18 13.0 1 2
+ 0.016888 2 1 cbr 210 ------- 5 3.18 13.0 1 2
- 0.016888 2 1 cbr 210 ------- 5 3.18 13.0 1 2
r 0.016888 13 0 cbr 210 ------- 5 13.1 3.19 1 3
+ 0.016888 0 1 cbr 210 ------- 5 13.1 3.19 1 3
- 0.016888 0 1 cbr 210 ------- 5 13.1 3.19 1 3
+ 0.02016 3 2 cbr 210 ------- 5 3.18 13.0 3 6
- 0.02016 3 2 cbr 210 ------- 5 3.18 13.0 3 6
+ 0.02016 13 0 cbr 210 ------- 5 13.1 3.19 3 7
- 0.02016 13 0 cbr 210 ------- 5 13.1 3.19 3 7
r 0.020336 2 1 cbr 210 ------- 5 3.18 13.0 0 0
+ 0.020336 1 0 cbr 210 ------- 5 3.18 13.0 0 0
- 0.020336 1 0 cbr 210 ------- 5 3.18 13.0 0 0
r 0.020336 0 1 cbr 210 ------- 5 13.1 3.19 0 1
+ 0.020336 1 2 cbr 210 ------- 5 13.1 3.19 0 1
- 0.020336 1 2 cbr 210 ------- 5 13.1 3.19 0 1
r 0.023608 3 2 cbr 210 ------- 5 3.18 13.0 2 4
+ 0.023608 2 1 cbr 210 ------- 5 3.18 13.0 2 4
- 0.023608 2 1 cbr 210 ------- 5 3.18 13.0 2 4
r 0.023608 13 0 cbr 210 ------- 5 13.1 3.19 2 5
+ 0.023608 0 1 cbr 210 ------- 5 13.1 3.19 2 5
- 0.023608 0 1 cbr 210 ------- 5 13.1 3.19 2 5
+ 0.02688 3 2 cbr 210 ------- 5 3.18 13.0 4 8
- 0.02688 3 2 cbr 210 ------- 5 3.18 13.0 4 8
+ 0.02688 13 0 cbr 210 ------- 5 13.1 3.19 4 9
- 0.02688 13 0 cbr 210 ------- 5 13.1 3.19 4 9
r 0.027056 2 1 cbr 210 ------- 5 3.18 13.0 1 2
+ 0.027056 1 0 cbr 210 ------- 5 3.18 13.0 1 2
- 0.027056 1 0 cbr 210 ------- 5 3.18 13.0 1 2
r 0.027056 0 1 cbr 210 ------- 5 13.1 3.19 1 3
+ 0.027056 1 2 cbr 210 ------- 5 13.1 3.19 1 3
- 0.027056 1 2 cbr 210 ------- 5 13.1 3.19 1 3
r 0.030328 3 2 cbr 210 ------- 5 3.18 13.0 3 6
+ 0.030328 2 1 cbr 210 ------- 5 3.18 13.0 3 6
- 0.030328 2 1 cbr 210 ------- 5 3.18 13.0 3 6
r 0.030328 13 0 cbr 210 ------- 5 13.1 3.19 3 7
+ 0.030328 0 1 cbr 210 ------- 5 13.1 3.19 3 7
- 0.030328 0 1 cbr 210 ------- 5 13.1 3.19 3 7
r 0.030504 1 0 cbr 210 ------- 5 3.18 13.0 0 0
+ 0.030504 0 13 cbr 210 ------- 5 3.18 13.0 0 0
- 0.030504 0 13 cbr 210 ------- 5 3.18 13.0 0 0
r 0.030504 1 2 cbr 210 ------- 5 13.1 3.19 0 1
+ 0.030504 2 3 cbr 210 ------- 5 13.1 3.19 0 1
- 0.030504 2 3 cbr 210 ------- 5 13.1 3.19 0 1
+ 0.0336 3 2 cbr 210 ------- 5 3.18 13.0 5 10
- 0.0336 3 2 cbr 210 ------- 5 3.18 13.0 5 10
+ 0.0336 13 0 cbr 210 ------- 5 13.1 3.19 5 11
- 0.0336 13 0 cbr 210 ------- 5 13.1 3.19 5 11
r 0.033776 2 1 cbr 210 ------- 5 3.18 13.0 2 4
+ 0.033776 1 0 cbr 210 ------- 5 3.18 13.0 2 4
- 0.033776 1 0 cbr 210 ------- 5 3.18 13.0 2 4
r 0.033776 0 1 cbr 210 ------- 5 13.1 3.19 2 5
+ 0.033776 1 2 cbr 210 ------- 5 13.1 3.19 2 5
- 0.033776 1 2 cbr 210 ------- 5 13.1 3.19 2 5
r 0.037048 3 2 cbr 210 ------- 5 3.18 13.0 4 8
+ 0.037048 2 1 cbr 210 ------- 5 3.18 13.0 4 8
- 0.037048 2 1 cbr 210 ------- 5 3.18 13.0 4 8
r 0.037048 13 0 cbr 210 ------- 5 13.1 3.19 4 9
+ 0.037048 0 1 cbr 210 ------- 5 13.1 3.19 4 9
- 0.037048 0 1 cbr 210 ------- 5 13.1 3.19 4 9
r 0.037224 1 0 cbr 210 ------- 5 3.18 13.0 1 2
+ 0.037224 0 13 cbr 210 ------- 5 3.18 13.0 1 2
- 0.037224 0 13 cbr 210 ------- 5 3.18 13.0 1 2
r 0.037224 1 2 cbr 210 ------- 5 13.1 3.19 1 3
+ 0.037224 2 3 cbr 210 ------- 5 13.1 3.19 1 3
- 0.037224 2 3 cbr 210 ------- 5 13.1 3.19 1 3
+ 0.04032 3 2 cbr 210 ------- 5 3.18 13.0 6 12
- 0.04032 3 2 cbr 210 ------- 5 3.18 13.0 6 12
+ 0.04032 13 0 cbr 210 ------- 5 13.1 3.19 6 13
- 0.04032 13 0 cbr 210 ------- 5 13.1 3.19 6 13
r 0.040496 2 1 cbr 210 ------- 5 3.18 13.0 3 6
+ 0.040496 1 0 cbr 210 ------- 5 3.18 13.0 3 6
- 0.040496 1 0 cbr 210 ------- 5 3.18 13.0 3 6
r 0.040496 0 1 cbr 210 ------- 5 13.1 3.19 3 7
+ 0.040496 1 2 cbr 210 ------- 5 13.1 3.19 3 7
- 0.040496 1 2 cbr 210 ------- 5 13.1 3.19 3 7
r 0.040672 0 13 cbr 210 ------- 5 3.18 13.0 0 0
r 0.040672 2 3 cbr 210 ------- 5 13.1 3.19 0 1
r 0.043768 3 2 cbr 210 ------- 5 3.18 13.0 5 10
+ 0.043768 2 1 cbr 210 ------- 5 3.18 13.0 5 10
- 0.043768 2 1 cbr 210 ------- 5 3.18 13.0 5 10
r 0.043768 13 0 cbr 210 ------- 5 13.1 3.19 5 11
+ 0.043768 0 1 cbr 210 ------- 5 13.1 3.19 5 11
- 0.043768 0 1 cbr 210 ------- 5 13.1 3.19 5 11
r 0.043944 1 0 cbr 210 ------- 5 3.18 13.0 2 4
+ 0.043944 0 13 cbr 210 ------- 5 3.18 13.0 2 4
- 0.043944 0 13 cbr 210 ------- 5 3.18 13.0 2 4
r 0.043944 1 2 cbr 210 ------- 5 13.1 3.19 2 5
+ 0.043944 2 3 cbr 210 ------- 5 13.1 3.19 2 5
- 0.043944 2 3 cbr 210 ------- 5 13.1 3.19 2 5
+ 0.04704 3 2 cbr 210 ------- 5 3.18 13.0 7 14
- 0.04704 3 2 cbr 210 ------- 5 3.18 13.0 7 14
+ 0.04704 13 0 cbr 210 ------- 5 13.1 3.19 7 15
- 0.04704 13 0 cbr 210 ------- 5 13.1 3.19 7 15
r 0.047216 2 1 cbr 210 ------- 5 3.18 13.0 4 8
+ 0.047216 1 0 cbr 210 ------- 5 3.18 13.0 4 8
- 0.047216 1 0 cbr 210 ------- 5 3.18 13.0 4 8
r 0.047216 0 1 cbr 210 ------- 5 13.1 3.19 4 9
+ 0.047216 1 2 cbr 210 ------- 5 13.1 3.19 4 9
- 0.047216 1 2 cbr 210 ------- 5 13.1 3.19 4 9
r 0.047392 0 13 cbr 210 ------- 5 3.18 13.0 1 2
r 0.047392 2 3 cbr 210 ------- 5 13.1 3.19 1 3
r 0.050488 3 2 cbr 210 ------- 5 3.18 13.0 6 12
+ 0.050488 2 1 cbr 210 ------- 5 3.18 13.0 6 12
- 0.050488 2 1 cbr 210 ------- 5 3.18 13.0 6 12
r 0.050488 13 0 cbr 210 ------- 5 13.1 3.19 6 13
+ 0.050488 0 1 cbr 210 ------- 5 13.1 3.19 6 13
- 0.050488 0 1 cbr 210 ------- 5 13.1 3.19 6 13
r 0.050664 1 0 cbr 210 ------- 5 3.18 13.0 3 6
+ 0.050664 0 13 cbr 210 ------- 5 3.18 13.0 3 6
- 0.050664 0 13 cbr 210 ------- 5 3.18 13.0 3 6
r 0.050664 1 2 cbr 210 ------- 5 13.1 3.19 3 7
+ 0.050664 2 3 cbr 210 ------- 5 13.1 3.19 3 7
- 0.050664 2 3 cbr 210 ------- 5 13.1 3.19 3 7
+ 0.05376 3 2 cbr 210 ------- 5 3.18 13.0 8 16
- 0.05376 3 2 cbr 210 ------- 5 3.18 13.0 8 16
+ 0.05376 13 0 cbr 210 ------- 5 13.1 3.19 8 17
- 0.05376 13 0 cbr 210 ------- 5 13.1 3.19 8 17
r 0.053936 2 1 cbr 210 ------- 5 3.18 13.0 5 10
+ 0.053936 1 0 cbr 210 ------- 5 3.18 13.0 5 10
- 0.053936 1 0 cbr 210 ------- 5 3.18 13.0 5 10
r 0.053936 0 1 cbr 210 ------- 5 13.1 3.19 5 11
+ 0.053936 1 2 cbr 210 ------- 5 13.1 3.19 5 11
- 0.053936 1 2 cbr 210 ------- 5 13.1 3.19 5 11
r 0.054112 0 13 cbr 210 ------- 5 3.18 13.0 2 4
r 0.054112 2 3 cbr 210 ------- 5 13.1 3.19 2 5
r 0.057208 3 2 cbr 210 ------- 5 3.18 13.0 7 14
+ 0.057208 2 1 cbr 210 ------- 5 3.18 13.0 7 14
- 0.057208 2 1 cbr 210 ------- 5 3.18 13.0 7 14
r 0.057208 13 0 cbr 210 ------- 5 13.1 3.19 7 15
+ 0.057208 0 1 cbr 210 ------- 5 13.1 3.19 7 15
- 0.057208 0 1 cbr 210 ------- 5 13.1 3.19 7 15
r 0.057384 1 0 cbr 210 ------- 5 3.18 13.0 4 8
+ 0.057384 0 13 cbr 210 ------- 5 3.18 13.0 4 8
- 0.057384 0 13 cbr 210 ------- 5 3.18 13.0 4 8
r 0.057384 1 2 cbr 210 ------- 5 13.1 3.19 4 9
+ 0.057384 2 3 cbr 210 ------- 5 13.1 3.19 4 9
- 0.057384 2 3 cbr 210 ------- 5 13.1 3.19 4 9
+ 0.060021 10 0 pareto 500 ------- 3 10.1 3.13 0 18
- 0.060021 10 0 pareto 500 ------- 3 10.1 3.13 0 18
+ 0.06048 3 2 cbr 210 ------- 5 3.18 13.0 9 19
- 0.06048 3 2 cbr 210 ------- 5 3.18 13.0 9 19
+ 0.06048 13 0 cbr 210 ------- 5 13.1 3.19 9 20
- 0.06048 13 0 cbr 210 ------- 5 13.1 3.19 9 20
+ 0.060629 11 0 pareto 500 ------- 3 11.1 3.15 0 21
- 0.060629 11 0 pareto 500 ------- 3 11.1 3.15 0 21
r 0.060656 2 1 cbr 210 ------- 5 3.18 13.0 6 12
+ 0.060656 1 0 cbr 210 ------- 5 3.18 13.0 6 12
- 0.060656 1 0 cbr 210 ------- 5 3.18 13.0 6 12
r 0.060656 0 1 cbr 210 ------- 5 13.1 3.19 6 13
+ 0.060656 1 2 cbr 210 ------- 5 13.1 3.19 6 13
- 0.060656 1 2 cbr 210 ------- 5 13.1 3.19 6 13
r 0.060832 0 13 cbr 210 ------- 5 3.18 13.0 3 6
r 0.060832 2 3 cbr 210 ------- 5 13.1 3.19 3 7
+ 0.062815 5 0 pareto 510 ------- 1 5.1 3.3 0 22
- 0.062815 5 0 pareto 510 ------- 1 5.1 3.3 0 22
+ 0.063891 3 2 pareto 510 ------- 1 3.2 5.0 0 23
- 0.063891 3 2 pareto 510 ------- 1 3.2 5.0 0 23
r 0.063928 3 2 cbr 210 ------- 5 3.18 13.0 8 16
+ 0.063928 2 1 cbr 210 ------- 5 3.18 13.0 8 16
- 0.063928 2 1 cbr 210 ------- 5 3.18 13.0 8 16
r 0.063928 13 0 cbr 210 ------- 5 13.1 3.19 8 17
+ 0.063928 0 1 cbr 210 ------- 5 13.1 3.19 8 17
- 0.063928 0 1 cbr 210 ------- 5 13.1 3.19 8 17
r 0.064104 1 0 cbr 210 ------- 5 3.18 13.0 5 10
+ 0.064104 0 13 cbr 210 ------- 5 3.18 13.0 5 10
- 0.064104 0 13 cbr 210 ------- 5 3.18 13.0 5 10
r 0.064104 1 2 cbr 210 ------- 5 13.1 3.19 5 11
+ 0.064104 2 3 cbr 210 ------- 5 13.1 3.19 5 11
- 0.064104 2 3 cbr 210 ------- 5 13.1 3.19 5 11
+ 0.06618 3 2 pareto 500 ------- 3 3.16 12.0 0 24
- 0.06618 3 2 pareto 500 ------- 3 3.16 12.0 0 24
+ 0.0672 3 2 cbr 210 ------- 5 3.18 13.0 10 25
- 0.0672 3 2 cbr 210 ------- 5 3.18 13.0 10 25
+ 0.0672 13 0 cbr 210 ------- 5 13.1 3.19 10 26
- 0.0672 13 0 cbr 210 ------- 5 13.1 3.19 10 26
r 0.067376 2 1 cbr 210 ------- 5 3.18 13.0 7 14
+ 0.067376 1 0 cbr 210 ------- 5 3.18 13.0 7 14
- 0.067376 1 0 cbr 210 ------- 5 3.18 13.0 7 14
r 0.067376 0 1 cbr 210 ------- 5 13.1 3.19 7 15
+ 0.067376 1 2 cbr 210 ------- 5 13.1 3.19 7 15
- 0.067376 1 2 cbr 210 ------- 5 13.1 3.19 7 15
r 0.067552 0 13 cbr 210 ------- 5 3.18 13.0 4 8
r 0.067552 2 3 cbr 210 ------- 5 13.1 3.19 4 9
+ 0.068021 10 0 pareto 500 ------- 3 10.1 3.13 1 27
- 0.068021 10 0 pareto 500 ------- 3 10.1 3.13 1 27
+ 0.068629 11 0 pareto 500 ------- 3 11.1 3.15 1 28
- 0.068629 11 0 pareto 500 ------- 3 11.1 3.15 1 28
+ 0.069474 6 0 pareto 1000 ------- 2 6.1 3.5 0 29
- 0.069474 6 0 pareto 1000 ------- 2 6.1 3.5 0 29
r 0.070421 10 0 pareto 500 ------- 3 10.1 3.13 0 18
+ 0.070421 0 1 pareto 500 ------- 3 10.1 3.13 0 18
- 0.070421 0 1 pareto 500 ------- 3 10.1 3.13 0 18
r 0.070648 3 2 cbr 210 ------- 5 3.18 13.0 9 19
+ 0.070648 2 1 cbr 210 ------- 5 3.18 13.0 9 19
- 0.070648 2 1 cbr 210 ------- 5 3.18 13.0 9 19
r 0.070648 13 0 cbr 210 ------- 5 13.1 3.19 9 20
+ 0.070648 0 1 cbr 210 ------- 5 13.1 3.19 9 20
- 0.070821 0 1 cbr 210 ------- 5 13.1 3.19 9 20
r 0.070824 1 0 cbr 210 ------- 5 3.18 13.0 6 12
+ 0.070824 0 13 cbr 210 ------- 5 3.18 13.0 6 12
- 0.070824 0 13 cbr 210 ------- 5 3.18 13.0 6 12
r 0.070824 1 2 cbr 210 ------- 5 13.1 3.19 6 13
+ 0.070824 2 3 cbr 210 ------- 5 13.1 3.19 6 13
- 0.070824 2 3 cbr 210 ------- 5 13.1 3.19 6 13
+ 0.070975 5 0 pareto 510 ------- 1 5.1 3.3 1 30
- 0.070975 5 0 pareto 510 ------- 1 5.1 3.3 1 30
r 0.071029 11 0 pareto 500 ------- 3 11.1 3.15 0 21
+ 0.071029 0 1 pareto 500 ------- 3 11.1 3.15 0 21
- 0.071029 0 1 pareto 500 ------- 3 11.1 3.15 0 21
+ 0.072051 3 2 pareto 510 ------- 1 3.2 5.0 1 31
- 0.072051 3 2 pareto 510 ------- 1 3.2 5.0 1 31
r 0.073223 5 0 pareto 510 ------- 1 5.1 3.3 0 22
+ 0.073223 0 1 pareto 510 ------- 1 5.1 3.3 0 22
- 0.073223 0 1 pareto 510 ------- 1 5.1 3.3 0 22
+ 0.07392 3 2 cbr 210 ------- 5 3.18 13.0 11 32
- 0.07392 3 2 cbr 210 ------- 5 3.18 13.0 11 32
+ 0.07392 13 0 cbr 210 ------- 5 13.1 3.19 11 33
- 0.07392 13 0 cbr 210 ------- 5 13.1 3.19 11 33
r 0.074096 2 1 cbr 210 ------- 5 3.18 13.0 8 16
+ 0.074096 1 0 cbr 210 ------- 5 3.18 13.0 8 16
- 0.074096 1 0 cbr 210 ------- 5 3.18 13.0 8 16
r 0.074096 0 1 cbr 210 ------- 5 13.1 3.19 8 17
+ 0.074096 1 2 cbr 210 ------- 5 13.1 3.19 8 17
- 0.074096 1 2 cbr 210 ------- 5 13.1 3.19 8 17
+ 0.07418 3 2 pareto 500 ------- 3 3.16 12.0 1 34
- 0.07418 3 2 pareto 500 ------- 3 3.16 12.0 1 34
r 0.074272 0 13 cbr 210 ------- 5 3.18 13.0 5 10
r 0.074272 2 3 cbr 210 ------- 5 13.1 3.19 5 11
r 0.074299 3 2 pareto 510 ------- 1 3.2 5.0 0 23
+ 0.074299 2 1 pareto 510 ------- 1 3.2 5.0 0 23
- 0.074299 2 1 pareto 510 ------- 1 3.2 5.0 0 23
+ 0.076021 10 0 pareto 500 ------- 3 10.1 3.13 2 35
- 0.076021 10 0 pareto 500 ------- 3 10.1 3.13 2 35
r 0.07658 3 2 pareto 500 ------- 3 3.16 12.0 0 24
+ 0.07658 2 1 pareto 500 ------- 3 3.16 12.0 0 24
- 0.07658 2 1 pareto 500 ------- 3 3.16 12.0 0 24
+ 0.076629 11 0 pareto 500 ------- 3 11.1 3.15 2 36
- 0.076629 11 0 pareto 500 ------- 3 11.1 3.15 2 36
r 0.077368 3 2 cbr 210 ------- 5 3.18 13.0 10 25
+ 0.077368 2 1 cbr 210 ------- 5 3.18 13.0 10 25
- 0.077368 2 1 cbr 210 ------- 5 3.18 13.0 10 25
r 0.077368 13 0 cbr 210 ------- 5 13.1 3.19 10 26
+ 0.077368 0 1 cbr 210 ------- 5 13.1 3.19 10 26
- 0.077368 0 1 cbr 210 ------- 5 13.1 3.19 10 26
r 0.077544 1 0 cbr 210 ------- 5 3.18 13.0 7 14
+ 0.077544 0 13 cbr 210 ------- 5 3.18 13.0 7 14
- 0.077544 0 13 cbr 210 ------- 5 3.18 13.0 7 14
r 0.077544 1 2 cbr 210 ------- 5 13.1 3.19 7 15
+ 0.077544 2 3 cbr 210 ------- 5 13.1 3.19 7 15
- 0.077544 2 3 cbr 210 ------- 5 13.1 3.19 7 15
r 0.078421 10 0 pareto 500 ------- 3 10.1 3.13 1 27
+ 0.078421 0 1 pareto 500 ------- 3 10.1 3.13 1 27
- 0.078421 0 1 pareto 500 ------- 3 10.1 3.13 1 27
r 0.079029 11 0 pareto 500 ------- 3 11.1 3.15 1 28
+ 0.079029 0 1 pareto 500 ------- 3 11.1 3.15 1 28
- 0.079029 0 1 pareto 500 ------- 3 11.1 3.15 1 28
+ 0.079135 5 0 pareto 510 ------- 1 5.1 3.3 2 37
- 0.079135 5 0 pareto 510 ------- 1 5.1 3.3 2 37
+ 0.080211 3 2 pareto 510 ------- 1 3.2 5.0 2 38
- 0.080211 3 2 pareto 510 ------- 1 3.2 5.0 2 38
r 0.080274 6 0 pareto 1000 ------- 2 6.1 3.5 0 29
+ 0.080274 0 1 pareto 1000 ------- 2 6.1 3.5 0 29
- 0.080274 0 1 pareto 1000 ------- 2 6.1 3.5 0 29
+ 0.08064 3 2 cbr 210 ------- 5 3.18 13.0 12 39
- 0.08064 3 2 cbr 210 ------- 5 3.18 13.0 12 39
+ 0.08064 13 0 cbr 210 ------- 5 13.1 3.19 12 40
- 0.08064 13 0 cbr 210 ------- 5 13.1 3.19 12 40
r 0.080816 2 1 cbr 210 ------- 5 3.18 13.0 9 19
+ 0.080816 1 0 cbr 210 ------- 5 3.18 13.0 9 19
- 0.080816 1 0 cbr 210 ------- 5 3.18 13.0 9 19
r 0.080821 0 1 pareto 500 ------- 3 10.1 3.13 0 18
+ 0.080821 1 2 pareto 500 ------- 3 10.1 3.13 0 18
- 0.080821 1 2 pareto 500 ------- 3 10.1 3.13 0 18
r 0.080989 0 1 cbr 210 ------- 5 13.1 3.19 9 20
+ 0.080989 1 2 cbr 210 ------- 5 13.1 3.19 9 20
r 0.080992 0 13 cbr 210 ------- 5 3.18 13.0 6 12
r 0.080992 2 3 cbr 210 ------- 5 13.1 3.19 6 13
- 0.081221 1 2 cbr 210 ------- 5 13.1 3.19 9 20
r 0.081383 5 0 pareto 510 ------- 1 5.1 3.3 1 30
+ 0.081383 0 1 pareto 510 ------- 1 5.1 3.3 1 30
- 0.081383 0 1 pareto 510 ------- 1 5.1 3.3 1 30
r 0.081429 0 1 pareto 500 ------- 3 11.1 3.15 0 21
+ 0.081429 1 2 pareto 500 ------- 3 11.1 3.15 0 21
- 0.081429 1 2 pareto 500 ------- 3 11.1 3.15 0 21
+ 0.08218 3 2 pareto 500 ------- 3 3.16 12.0 2 41
- 0.08218 3 2 pareto 500 ------- 3 3.16 12.0 2 41
r 0.082459 3 2 pareto 510 ------- 1 3.2 5.0 1 31
+ 0.082459 2 1 pareto 510 ------- 1 3.2 5.0 1 31
- 0.082459 2 1 pareto 510 ------- 1 3.2 5.0 1 31
r 0.083631 0 1 pareto 510 ------- 1 5.1 3.3 0 22
+ 0.083631 1 2 pareto 510 ------- 1 5.1 3.3 0 22
- 0.083631 1 2 pareto 510 ------- 1 5.1 3.3 0 22
+ 0.084021 10 0 pareto 500 ------- 3 10.1 3.13 3 42
- 0.084021 10 0 pareto 500 ------- 3 10.1 3.13 3 42
r 0.084088 3 2 cbr 210 ------- 5 3.18 13.0 11 32
+ 0.084088 2 1 cbr 210 ------- 5 3.18 13.0 11 32
- 0.084088 2 1 cbr 210 ------- 5 3.18 13.0 11 32
r 0.084088 13 0 cbr 210 ------- 5 13.1 3.19 11 33
+ 0.084088 0 1 cbr 210 ------- 5 13.1 3.19 11 33
- 0.084088 0 1 cbr 210 ------- 5 13.1 3.19 11 33
r 0.084264 1 0 cbr 210 ------- 5 3.18 13.0 8 16
+ 0.084264 0 13 cbr 210 ------- 5 3.18 13.0 8 16
- 0.084264 0 13 cbr 210 ------- 5 3.18 13.0 8 16
r 0.084264 1 2 cbr 210 ------- 5 13.1 3.19 8 17
+ 0.084264 2 3 cbr 210 ------- 5 13.1 3.19 8 17
- 0.084264 2 3 cbr 210 ------- 5 13.1 3.19 8 17
+ 0.084309 3 2 pareto 1000 ------- 2 3.4 6.0 0 43
- 0.084309 3 2 pareto 1000 ------- 2 3.4 6.0 0 43
r 0.08458 3 2 pareto 500 ------- 3 3.16 12.0 1 34
+ 0.08458 2 1 pareto 500 ------- 3 3.16 12.0 1 34
- 0.08458 2 1 pareto 500 ------- 3 3.16 12.0 1 34
+ 0.084629 11 0 pareto 500 ------- 3 11.1 3.15 3 44
- 0.084629 11 0 pareto 500 ------- 3 11.1 3.15 3 44
r 0.084707 2 1 pareto 510 ------- 1 3.2 5.0 0 23
+ 0.084707 1 0 pareto 510 ------- 1 3.2 5.0 0 23
- 0.084707 1 0 pareto 510 ------- 1 3.2 5.0 0 23
+ 0.085474 6 0 pareto 1000 ------- 2 6.1 3.5 1 45
- 0.085474 6 0 pareto 1000 ------- 2 6.1 3.5 1 45
+ 0.08568 3 2 pareto 510 ------- 1 3.0 4.0 0 46
- 0.08568 3 2 pareto 510 ------- 1 3.0 4.0 0 46
r 0.086421 10 0 pareto 500 ------- 3 10.1 3.13 2 35
+ 0.086421 0 1 pareto 500 ------- 3 10.1 3.13 2 35
- 0.086421 0 1 pareto 500 ------- 3 10.1 3.13 2 35
r 0.08698 2 1 pareto 500 ------- 3 3.16 12.0 0 24
+ 0.08698 1 0 pareto 500 ------- 3 3.16 12.0 0 24
- 0.08698 1 0 pareto 500 ------- 3 3.16 12.0 0 24
r 0.087029 11 0 pareto 500 ------- 3 11.1 3.15 2 36
+ 0.087029 0 1 pareto 500 ------- 3 11.1 3.15 2 36
- 0.087029 0 1 pareto 500 ------- 3 11.1 3.15 2 36
+ 0.087295 5 0 pareto 510 ------- 1 5.1 3.3 3 47
- 0.087295 5 0 pareto 510 ------- 1 5.1 3.3 3 47
+ 0.08736 3 2 cbr 210 ------- 5 3.18 13.0 13 48
- 0.08736 3 2 cbr 210 ------- 5 3.18 13.0 13 48
+ 0.08736 13 0 cbr 210 ------- 5 13.1 3.19 13 49
- 0.08736 13 0 cbr 210 ------- 5 13.1 3.19 13 49
r 0.087536 2 1 cbr 210 ------- 5 3.18 13.0 10 25
+ 0.087536 1 0 cbr 210 ------- 5 3.18 13.0 10 25
- 0.087536 1 0 cbr 210 ------- 5 3.18 13.0 10 25
r 0.087536 0 1 cbr 210 ------- 5 13.1 3.19 10 26
+ 0.087536 1 2 cbr 210 ------- 5 13.1 3.19 10 26
- 0.087536 1 2 cbr 210 ------- 5 13.1 3.19 10 26
r 0.087712 0 13 cbr 210 ------- 5 3.18 13.0 7 14
r 0.087712 2 3 cbr 210 ------- 5 13.1 3.19 7 15
+ 0.088371 3 2 pareto 510 ------- 1 3.2 5.0 3 50
- 0.088371 3 2 pareto 510 ------- 1 3.2 5.0 3 50
r 0.088821 0 1 pareto 500 ------- 3 10.1 3.13 1 27
+ 0.088821 1 2 pareto 500 ------- 3 10.1 3.13 1 27
- 0.088821 1 2 pareto 500 ------- 3 10.1 3.13 1 27
r 0.089429 0 1 pareto 500 ------- 3 11.1 3.15 1 28
+ 0.089429 1 2 pareto 500 ------- 3 11.1 3.15 1 28
- 0.089429 1 2 pareto 500 ------- 3 11.1 3.15 1 28
r 0.089543 5 0 pareto 510 ------- 1 5.1 3.3 2 37
+ 0.089543 0 1 pareto 510 ------- 1 5.1 3.3 2 37
- 0.089543 0 1 pareto 510 ------- 1 5.1 3.3 2 37
+ 0.09018 3 2 pareto 500 ------- 3 3.16 12.0 3 51
- 0.09018 3 2 pareto 500 ------- 3 3.16 12.0 3 51
r 0.090619 3 2 pareto 510 ------- 1 3.2 5.0 2 38
+ 0.090619 2 1 pareto 510 ------- 1 3.2 5.0 2 38
- 0.090619 2 1 pareto 510 ------- 1 3.2 5.0 2 38
r 0.090808 3 2 cbr 210 ------- 5 3.18 13.0 12 39
+ 0.090808 2 1 cbr 210 ------- 5 3.18 13.0 12 39
r 0.090808 13 0 cbr 210 ------- 5 13.1 3.19 12 40
+ 0.090808 0 1 cbr 210 ------- 5 13.1 3.19 12 40
- 0.090808 0 1 cbr 210 ------- 5 13.1 3.19 12 40
r 0.090984 1 0 cbr 210 ------- 5 3.18 13.0 9 19
+ 0.090984 0 13 cbr 210 ------- 5 3.18 13.0 9 19
- 0.090984 0 13 cbr 210 ------- 5 3.18 13.0 9 19
- 0.091027 2 1 cbr 210 ------- 5 3.18 13.0 12 39
r 0.091074 0 1 pareto 1000 ------- 2 6.1 3.5 0 29
+ 0.091074 1 2 pareto 1000 ------- 2 6.1 3.5 0 29
- 0.091074 1 2 pareto 1000 ------- 2 6.1 3.5 0 29
r 0.091221 1 2 pareto 500 ------- 3 10.1 3.13 0 18
+ 0.091221 2 3 pareto 500 ------- 3 10.1 3.13 0 18
- 0.091221 2 3 pareto 500 ------- 3 10.1 3.13 0 18
r 0.091389 1 2 cbr 210 ------- 5 13.1 3.19 9 20
+ 0.091389 2 3 cbr 210 ------- 5 13.1 3.19 9 20
- 0.091621 2 3 cbr 210 ------- 5 13.1 3.19 9 20
r 0.091791 0 1 pareto 510 ------- 1 5.1 3.3 1 30
+ 0.091791 1 2 pareto 510 ------- 1 5.1 3.3 1 30
r 0.091829 1 2 pareto 500 ------- 3 11.1 3.15 0 21
+ 0.091829 2 3 pareto 500 ------- 3 11.1 3.15 0 21
- 0.091829 2 3 pareto 500 ------- 3 11.1 3.15 0 21
- 0.091874 1 2 pareto 510 ------- 1 5.1 3.3 1 30
+ 0.092021 10 0 pareto 500 ------- 3 10.1 3.13 4 52
- 0.092021 10 0 pareto 500 ------- 3 10.1 3.13 4 52
r 0.09258 3 2 pareto 500 ------- 3 3.16 12.0 2 41
+ 0.09258 2 1 pareto 500 ------- 3 3.16 12.0 2 41
- 0.09258 2 1 pareto 500 ------- 3 3.16 12.0 2 41
+ 0.092629 11 0 pareto 500 ------- 3 11.1 3.15 4 53
- 0.092629 11 0 pareto 500 ------- 3 11.1 3.15 4 53
r 0.092867 2 1 pareto 510 ------- 1 3.2 5.0 1 31
+ 0.092867 1 0 pareto 510 ------- 1 3.2 5.0 1 31
- 0.092867 1 0 pareto 510 ------- 1 3.2 5.0 1 31
+ 0.09384 3 2 pareto 510 ------- 1 3.0 4.0 1 54
- 0.09384 3 2 pareto 510 ------- 1 3.0 4.0 1 54
r 0.094039 1 2 pareto 510 ------- 1 5.1 3.3 0 22
+ 0.094039 2 3 pareto 510 ------- 1 5.1 3.3 0 22
- 0.094039 2 3 pareto 510 ------- 1 5.1 3.3 0 22
+ 0.09408 3 2 cbr 210 ------- 5 3.18 13.0 14 55
+ 0.09408 13 0 cbr 210 ------- 5 13.1 3.19 14 56
- 0.09408 13 0 cbr 210 ------- 5 13.1 3.19 14 56
- 0.094248 3 2 cbr 210 ------- 5 3.18 13.0 14 55
r 0.094256 2 1 cbr 210 ------- 5 3.18 13.0 11 32
+ 0.094256 1 0 cbr 210 ------- 5 3.18 13.0 11 32
- 0.094256 1 0 cbr 210 ------- 5 3.18 13.0 11 32
r 0.094256 0 1 cbr 210 ------- 5 13.1 3.19 11 33
+ 0.094256 1 2 cbr 210 ------- 5 13.1 3.19 11 33
- 0.094256 1 2 cbr 210 ------- 5 13.1 3.19 11 33
r 0.094421 10 0 pareto 500 ------- 3 10.1 3.13 3 42
+ 0.094421 0 1 pareto 500 ------- 3 10.1 3.13 3 42
- 0.094421 0 1 pareto 500 ------- 3 10.1 3.13 3 42
r 0.094432 0 13 cbr 210 ------- 5 3.18 13.0 8 16
r 0.094432 2 3 cbr 210 ------- 5 13.1 3.19 8 17
r 0.09498 2 1 pareto 500 ------- 3 3.16 12.0 1 34
+ 0.09498 1 0 pareto 500 ------- 3 3.16 12.0 1 34
- 0.09498 1 0 pareto 500 ------- 3 3.16 12.0 1 34
r 0.095029 11 0 pareto 500 ------- 3 11.1 3.15 3 44
+ 0.095029 0 1 pareto 500 ------- 3 11.1 3.15 3 44
- 0.095029 0 1 pareto 500 ------- 3 11.1 3.15 3 44
r 0.095109 3 2 pareto 1000 ------- 2 3.4 6.0 0 43
+ 0.095109 2 1 pareto 1000 ------- 2 3.4 6.0 0 43
- 0.095109 2 1 pareto 1000 ------- 2 3.4 6.0 0 43
r 0.095115 1 0 pareto 510 ------- 1 3.2 5.0 0 23
+ 0.095115 0 5 pareto 510 ------- 1 3.2 5.0 0 23
- 0.095115 0 5 pareto 510 ------- 1 3.2 5.0 0 23
+ 0.095455 5 0 pareto 510 ------- 1 5.1 3.3 4 57
- 0.095455 5 0 pareto 510 ------- 1 5.1 3.3 4 57
r 0.096088 3 2 pareto 510 ------- 1 3.0 4.0 0 46
+ 0.096088 2 1 pareto 510 ------- 1 3.0 4.0 0 46
- 0.096088 2 1 pareto 510 ------- 1 3.0 4.0 0 46
r 0.096274 6 0 pareto 1000 ------- 2 6.1 3.5 1 45
+ 0.096274 0 1 pareto 1000 ------- 2 6.1 3.5 1 45
- 0.096274 0 1 pareto 1000 ------- 2 6.1 3.5 1 45
+ 0.096531 3 2 pareto 510 ------- 1 3.2 5.0 4 58
- 0.096531 3 2 pareto 510 ------- 1 3.2 5.0 4 58
r 0.096821 0 1 pareto 500 ------- 3 10.1 3.13 2 35
+ 0.096821 1 2 pareto 500 ------- 3 10.1 3.13 2 35
- 0.096821 1 2 pareto 500 ------- 3 10.1 3.13 2 35
r 0.09738 1 0 pareto 500 ------- 3 3.16 12.0 0 24
+ 0.09738 0 12 pareto 500 ------- 3 3.16 12.0 0 24
- 0.09738 0 12 pareto 500 ------- 3 3.16 12.0 0 24
r 0.097429 0 1 pareto 500 ------- 3 11.1 3.15 2 36
+ 0.097429 1 2 pareto 500 ------- 3 11.1 3.15 2 36
- 0.097429 1 2 pareto 500 ------- 3 11.1 3.15 2 36
r 0.097528 3 2 cbr 210 ------- 5 3.18 13.0 13 48
+ 0.097528 2 1 cbr 210 ------- 5 3.18 13.0 13 48
- 0.097528 2 1 cbr 210 ------- 5 3.18 13.0 13 48
r 0.097528 13 0 cbr 210 ------- 5 13.1 3.19 13 49
+ 0.097528 0 1 cbr 210 ------- 5 13.1 3.19 13 49
- 0.097528 0 1 cbr 210 ------- 5 13.1 3.19 13 49
r 0.097703 5 0 pareto 510 ------- 1 5.1 3.3 3 47
+ 0.097703 0 1 pareto 510 ------- 1 5.1 3.3 3 47
- 0.097703 0 1 pareto 510 ------- 1 5.1 3.3 3 47
r 0.097704 1 0 cbr 210 ------- 5 3.18 13.0 10 25
+ 0.097704 0 13 cbr 210 ------- 5 3.18 13.0 10 25
- 0.097704 0 13 cbr 210 ------- 5 3.18 13.0 10 25
r 0.097704 1 2 cbr 210 ------- 5 13.1 3.19 10 26
+ 0.097704 2 3 cbr 210 ------- 5 13.1 3.19 10 26
- 0.097704 2 3 cbr 210 ------- 5 13.1 3.19 10 26
+ 0.09818 3 2 pareto 500 ------- 3 3.16 12.0 4 59
- 0.09818 3 2 pareto 500 ------- 3 3.16 12.0 4 59
r 0.098779 3 2 pareto 510 ------- 1 3.2 5.0 3 50
+ 0.098779 2 1 pareto 510 ------- 1 3.2 5.0 3 50
- 0.098779 2 1 pareto 510 ------- 1 3.2 5.0 3 50
+ 0.09898 3 2 pareto 500 ------- 3 3.12 10.0 0 60
- 0.09898 3 2 pareto 500 ------- 3 3.12 10.0 0 60
r 0.099221 1 2 pareto 500 ------- 3 10.1 3.13 1 27
+ 0.099221 2 3 pareto 500 ------- 3 10.1 3.13 1 27
- 0.099221 2 3 pareto 500 ------- 3 10.1 3.13 1 27
r 0.099829 1 2 pareto 500 ------- 3 11.1 3.15 1 28
+ 0.099829 2 3 pareto 500 ------- 3 11.1 3.15 1 28
- 0.099829 2 3 pareto 500 ------- 3 11.1 3.15 1 28
r 0.099951 0 1 pareto 510 ------- 1 5.1 3.3 2 37
+ 0.099951 1 2 pareto 510 ------- 1 5.1 3.3 2 37
- 0.099951 1 2 pareto 510 ------- 1 5.1 3.3 2 37
+ 0.100021 10 0 pareto 500 ------- 3 10.1 3.13 5 61
- 0.100021 10 0 pareto 500 ------- 3 10.1 3.13 5 61
+ 0.100309 3 2 pareto 1000 ------- 2 3.4 6.0 1 62
- 0.100309 3 2 pareto 1000 ------- 2 3.4 6.0 1 62
r 0.10058 3 2 pareto 500 ------- 3 3.16 12.0 3 51
+ 0.10058 2 1 pareto 500 ------- 3 3.16 12.0 3 51
- 0.10058 2 1 pareto 500 ------- 3 3.16 12.0 3 51
+ 0.100629 11 0 pareto 500 ------- 3 11.1 3.15 5 63
- 0.100629 11 0 pareto 500 ------- 3 11.1 3.15 5 63
+ 0.1008 3 2 cbr 210 ------- 5 3.18 13.0 15 64
+ 0.1008 13 0 cbr 210 ------- 5 13.1 3.19 15 65
- 0.1008 13 0 cbr 210 ------- 5 13.1 3.19 15 65
r 0.100976 0 1 cbr 210 ------- 5 13.1 3.19 12 40
+ 0.100976 1 2 cbr 210 ------- 5 13.1 3.19 12 40
- 0.100976 1 2 cbr 210 ------- 5 13.1 3.19 12 40
r 0.101027 2 1 pareto 510 ------- 1 3.2 5.0 2 38
+ 0.101027 1 0 pareto 510 ------- 1 3.2 5.0 2 38
- 0.101027 1 0 pareto 510 ------- 1 3.2 5.0 2 38
- 0.101109 3 2 cbr 210 ------- 5 3.18 13.0 15 64
r 0.101152 0 13 cbr 210 ------- 5 3.18 13.0 9 19
r 0.101195 2 1 cbr 210 ------- 5 3.18 13.0 12 39
+ 0.101195 1 0 cbr 210 ------- 5 3.18 13.0 12 39
- 0.101435 1 0 cbr 210 ------- 5 3.18 13.0 12 39
+ 0.101474 6 0 pareto 1000 ------- 2 6.1 3.5 2 66
- 0.101474 6 0 pareto 1000 ------- 2 6.1 3.5 2 66
r 0.101621 2 3 pareto 500 ------- 3 10.1 3.13 0 18
r 0.101789 2 3 cbr 210 ------- 5 13.1 3.19 9 20
r 0.101874 1 2 pareto 1000 ------- 2 6.1 3.5 0 29
+ 0.101874 2 3 pareto 1000 ------- 2 6.1 3.5 0 29
- 0.101874 2 3 pareto 1000 ------- 2 6.1 3.5 0 29
+ 0.102 3 2 pareto 510 ------- 1 3.0 4.0 2 67
- 0.102 3 2 pareto 510 ------- 1 3.0 4.0 2 67
r 0.102229 2 3 pareto 500 ------- 3 11.1 3.15 0 21
r 0.102282 1 2 pareto 510 ------- 1 5.1 3.3 1 30
+ 0.102282 2 3 pareto 510 ------- 1 5.1 3.3 1 30
r 0.102421 10 0 pareto 500 ------- 3 10.1 3.13 4 52
+ 0.102421 0 1 pareto 500 ------- 3 10.1 3.13 4 52
- 0.102421 0 1 pareto 500 ------- 3 10.1 3.13 4 52
- 0.102674 2 3 pareto 510 ------- 1 5.1 3.3 1 30
r 0.10298 2 1 pareto 500 ------- 3 3.16 12.0 2 41
+ 0.10298 1 0 pareto 500 ------- 3 3.16 12.0 2 41
- 0.10298 1 0 pareto 500 ------- 3 3.16 12.0 2 41
r 0.103029 11 0 pareto 500 ------- 3 11.1 3.15 4 53
+ 0.103029 0 1 pareto 500 ------- 3 11.1 3.15 4 53
- 0.103029 0 1 pareto 500 ------- 3 11.1 3.15 4 53
r 0.103275 1 0 pareto 510 ------- 1 3.2 5.0 1 31
+ 0.103275 0 5 pareto 510 ------- 1 3.2 5.0 1 31
- 0.103275 0 5 pareto 510 ------- 1 3.2 5.0 1 31
+ 0.103615 5 0 pareto 510 ------- 1 5.1 3.3 5 68
- 0.103615 5 0 pareto 510 ------- 1 5.1 3.3 5 68
r 0.104248 3 2 pareto 510 ------- 1 3.0 4.0 1 54
+ 0.104248 2 1 pareto 510 ------- 1 3.0 4.0 1 54
- 0.104248 2 1 pareto 510 ------- 1 3.0 4.0 1 54
r 0.104248 13 0 cbr 210 ------- 5 13.1 3.19 14 56
+ 0.104248 0 1 cbr 210 ------- 5 13.1 3.19 14 56
- 0.104248 0 1 cbr 210 ------- 5 13.1 3.19 14 56
r 0.104416 3 2 cbr 210 ------- 5 3.18 13.0 14 55
+ 0.104416 2 1 cbr 210 ------- 5 3.18 13.0 14 55
r 0.104424 1 0 cbr 210 ------- 5 3.18 13.0 11 32
+ 0.104424 0 13 cbr 210 ------- 5 3.18 13.0 11 32
- 0.104424 0 13 cbr 210 ------- 5 3.18 13.0 11 32
r 0.104424 1 2 cbr 210 ------- 5 13.1 3.19 11 33
+ 0.104424 2 3 cbr 210 ------- 5 13.1 3.19 11 33
- 0.104424 2 3 cbr 210 ------- 5 13.1 3.19 11 33
r 0.104447 2 3 pareto 510 ------- 1 5.1 3.3 0 22
- 0.104656 2 1 cbr 210 ------- 5 3.18 13.0 14 55
+ 0.104691 3 2 pareto 510 ------- 1 3.2 5.0 5 69
- 0.104691 3 2 pareto 510 ------- 1 3.2 5.0 5 69
r 0.104821 0 1 pareto 500 ------- 3 10.1 3.13 3 42
+ 0.104821 1 2 pareto 500 ------- 3 10.1 3.13 3 42
- 0.104821 1 2 pareto 500 ------- 3 10.1 3.13 3 42
r 0.10538 1 0 pareto 500 ------- 3 3.16 12.0 1 34
+ 0.10538 0 12 pareto 500 ------- 3 3.16 12.0 1 34
- 0.10538 0 12 pareto 500 ------- 3 3.16 12.0 1 34
r 0.105429 0 1 pareto 500 ------- 3 11.1 3.15 3 44
+ 0.105429 1 2 pareto 500 ------- 3 11.1 3.15 3 44
- 0.105429 1 2 pareto 500 ------- 3 11.1 3.15 3 44
r 0.105523 0 5 pareto 510 ------- 1 3.2 5.0 0 23
r 0.105863 5 0 pareto 510 ------- 1 5.1 3.3 4 57
+ 0.105863 0 1 pareto 510 ------- 1 5.1 3.3 4 57
- 0.105863 0 1 pareto 510 ------- 1 5.1 3.3 4 57
r 0.105909 2 1 pareto 1000 ------- 2 3.4 6.0 0 43
+ 0.105909 1 0 pareto 1000 ------- 2 3.4 6.0 0 43
- 0.105909 1 0 pareto 1000 ------- 2 3.4 6.0 0 43
+ 0.10618 3 2 pareto 500 ------- 3 3.16 12.0 5 70
- 0.10618 3 2 pareto 500 ------- 3 3.16 12.0 5 70
r 0.106496 2 1 pareto 510 ------- 1 3.0 4.0 0 46
+ 0.106496 1 0 pareto 510 ------- 1 3.0 4.0 0 46
- 0.106709 1 0 pareto 510 ------- 1 3.0 4.0 0 46
r 0.106939 3 2 pareto 510 ------- 1 3.2 5.0 4 58
+ 0.106939 2 1 pareto 510 ------- 1 3.2 5.0 4 58
- 0.106939 2 1 pareto 510 ------- 1 3.2 5.0 4 58
+ 0.10698 3 2 pareto 500 ------- 3 3.12 10.0 1 71
- 0.10698 3 2 pareto 500 ------- 3 3.12 10.0 1 71
r 0.107074 0 1 pareto 1000 ------- 2 6.1 3.5 1 45
+ 0.107074 1 2 pareto 1000 ------- 2 6.1 3.5 1 45
- 0.107074 1 2 pareto 1000 ------- 2 6.1 3.5 1 45
r 0.107221 1 2 pareto 500 ------- 3 10.1 3.13 2 35
+ 0.107221 2 3 pareto 500 ------- 3 10.1 3.13 2 35
- 0.107221 2 3 pareto 500 ------- 3 10.1 3.13 2 35
+ 0.10752 3 2 cbr 210 ------- 5 3.18 13.0 16 72
- 0.10752 3 2 cbr 210 ------- 5 3.18 13.0 16 72
+ 0.10752 13 0 cbr 210 ------- 5 13.1 3.19 16 73
- 0.10752 13 0 cbr 210 ------- 5 13.1 3.19 16 73
r 0.107696 2 1 cbr 210 ------- 5 3.18 13.0 13 48
+ 0.107696 1 0 cbr 210 ------- 5 3.18 13.0 13 48
- 0.107696 1 0 cbr 210 ------- 5 3.18 13.0 13 48
r 0.107696 0 1 cbr 210 ------- 5 13.1 3.19 13 49
+ 0.107696 1 2 cbr 210 ------- 5 13.1 3.19 13 49
r 0.10778 0 12 pareto 500 ------- 3 3.16 12.0 0 24
r 0.107829 1 2 pareto 500 ------- 3 11.1 3.15 2 36
+ 0.107829 2 3 pareto 500 ------- 3 11.1 3.15 2 36
- 0.107829 2 3 pareto 500 ------- 3 11.1 3.15 2 36
r 0.107872 0 13 cbr 210 ------- 5 3.18 13.0 10 25
r 0.107872 2 3 cbr 210 ------- 5 13.1 3.19 10 26
- 0.107874 1 2 cbr 210 ------- 5 13.1 3.19 13 49
+ 0.108021 10 0 pareto 500 ------- 3 10.1 3.13 6 74
- 0.108021 10 0 pareto 500 ------- 3 10.1 3.13 6 74
r 0.108111 0 1 pareto 510 ------- 1 5.1 3.3 3 47