r 0.0 0 1 ack 1 ------- 1 3.0 0.0 15 201
r 0.02 0 1 ack 1 ------- 1 3.0 0.0 15 201
r 1.0 0 1 ack 1 ------- 1 3.0 0.0 15 201
r 1.5 0 1 ack 1 ------- 1 3.0 0.0 15 201
r 2.0 0 1 ack 1 ------- 1 3.0 0.0 15 201
r 3.0 0 1 ack 1 ------- 1 3.0 0.0 15 201
r 3.9 0 1 ack 1 ------- 3 3.0 0.0 15 201
r 3.9 0 1 ack 1 ------- 5 3.0 0.0 15 201
r 3.9 0 1 ack 1 ------- 7 3.0 0.0 15 201
r 3.9 0 1 ack 1 ------- 7 3.0 0.0 15 201
