r 0.0 0 1 ack 1 ------- 1 3.0 0.0 15 201
r 0.0 0 1 ack 1 ------- 6 3.0 0.0 15 201
r 0.0 0 1 ack 1 ------- 3 3.0 0.0 15 201
r 0.0 0 1 ack 1 ------- 2 3.0 0.0 15 201
r 0.0 0 1 ack 1 ------- 3 3.0 0.0 15 201
r 0.0 1 1 ack 1 ------- 8 3.0 0.0 15 201
r 0.0 0 1 ack 1 ------- 8 3.0 0.0 15 201
